LAMMPS data file via write_data, version 31 Mar 2017, timestep = 100000

864 atoms
1 atom types

-1.8662347474940313e+00 2.2866234747494556e+01 xlo xhi
-1.8662347474940313e+00 2.2866234747494556e+01 ylo yhi
-1.8662347474940313e+00 2.2866234747494556e+01 zlo zhi

Masses

1 63.55

Atoms # atomic

133 1 -1.1417796577238051e+00 3.0170888202002879e+00 -5.1442362516887086e-01 1 1 0
79 1 7.2442066830834817e-01 -8.9771572126411658e-01 5.2696106563183753e-01 0 0 0
341 1 2.2606061867252691e+01 -1.3921151199016474e-01 -1.8275167468992013e+00 -1 0 0
249 1 3.3370382548927311e+00 2.4878831800474117e+00 4.9629742912204988e-01 1 1 1
237 1 2.9538176112283203e+00 1.5421385650980366e+00 2.6513480878837310e+00 0 0 0
51 1 6.8684760364097848e+00 -7.6301161688050645e-01 2.2031422070897957e+01 0 1 0
222 1 7.1346927135610816e+00 -1.6207836700641713e+00 -5.0009541137195157e-01 -1 0 0
52 1 3.0084220920265907e+00 -1.3552240277866506e-01 4.1080154988370321e-01 -2 0 0
446 1 5.8927907777131026e+00 -5.1108421400422510e-01 2.2821552662563440e+00 0 0 0
680 1 8.6364725968502150e+00 2.2443958731041434e+01 3.4565982870986014e+00 -1 -1 0
393 1 1.1330029335546367e+01 8.4064105520557142e-01 -1.7667305455480111e+00 -1 1 0
846 1 1.3945943874082380e+01 1.2415508536392261e+00 -7.5372059276551917e-01 0 1 0
127 1 9.4505715549035969e+00 -5.8579448751079521e-01 4.1246877514325697e-01 0 -1 0
710 1 1.3163715472754044e+01 -1.2929088669107813e+00 2.2630351333854286e+01 0 1 -1
13 1 1.1929391900626777e+01 -4.0634951160969623e-01 1.2669283847221299e-01 -1 0 0
235 1 1.5750175849675639e+01 -7.3665328012425502e-01 -4.7054898040395032e-01 0 1 0
264 1 1.5859516965421870e+01 1.3102648172529996e+00 1.5985889435070009e+00 0 0 -1
826 1 1.2998988689534920e+01 -1.2174730007078650e-01 2.3689139036095628e+00 0 1 1
830 1 1.8298810330467525e+01 -1.5308913659816215e+00 -9.8184668165623135e-01 0 0 1
563 1 1.9386680402187764e+01 -2.4852623663795059e-01 7.3240893880206825e-01 -1 1 1
476 1 1.8647739130526528e+01 2.9501545286755557e+00 3.1680725410659810e-01 -1 0 0
728 1 2.1699292297506169e+01 -1.7907339825989568e+00 8.0323902653798940e-01 -1 -1 1
176 1 2.0767439321566570e+01 2.1373594531398150e+00 -3.7538902644586036e-01 -1 1 1
839 1 1.9168911442855073e+01 2.8588999707630345e+00 2.2233848420612532e+01 0 1 -1
820 1 7.8272035109721250e-01 1.6535885482552748e+00 1.3073624046891028e+00 0 1 1
148 1 5.2105512184312435e+00 6.0409637058221595e+00 2.4950546808483458e+00 0 0 1
154 1 2.1721635327654027e+01 3.9177876026172447e+00 3.5411395310474898e+00 0 0 1
739 1 1.1258833313914931e+00 3.8035714552116549e+00 3.7371593626794535e-02 0 0 0
185 1 1.8755636857672315e+00 4.3601303895055281e+00 2.5902106306592367e+00 1 1 0
453 1 5.3622209028222239e+00 6.3793485936494037e+00 1.5650647044589217e-01 1 0 0
475 1 7.3818775806546215e+00 9.8758094968903487e-01 -2.1552317619275818e-01 1 0 0
408 1 7.4011390863465873e+00 5.4421657003096993e+00 1.1578774796859850e+00 1 1 0
106 1 7.6667184699511424e+00 1.1706477229558463e+00 2.7299371604491740e+00 0 0 0
258 1 1.0110326107905800e+01 4.0768145883340239e+00 -7.1258060821259106e-01 0 1 0
46 1 1.2164016152103173e+01 6.0437257250574490e+00 2.2787437955744235e+01 0 1 0
546 1 1.1360846357842952e+01 1.7860925246057540e+00 4.1969676261563771e-01 0 0 0
730 1 1.1444113770487307e+01 4.4401163390934855e+00 1.7305006072344060e+00 -1 0 1
559 1 1.5441395612979184e+01 3.2369447227559167e+00 -1.8126002558873542e+00 0 0 0
336 1 1.6939911476897308e+01 5.0060874863345575e+00 1.7642815026292957e+00 0 -1 0
673 1 1.2953688172658634e+01 3.7106577527928066e+00 -9.9386709371412515e-02 0 1 0
295 1 1.4259172456670667e+01 5.2191842887379414e+00 2.1626247684440866e+01 0 0 0
129 1 7.4544545342282265e-01 6.4490788618255870e+00 -5.6015527494160366e-01 1 1 0
686 1 -4.6887706294169124e-01 4.6637774079989658e+00 2.2285674273632040e+01 0 0 0
425 1 2.1634417723734202e+01 4.3928937480709589e+00 1.6056882441421630e-01 0 0 0
162 1 2.2348279806450606e+01 3.0936716120783152e+00 2.2156080569717069e+01 0 0 -1
749 1 1.7685802266954326e+01 5.1552352324681419e+00 -1.1632531285344105e+00 0 0 1
182 1 1.1552713850049325e+00 7.2855157697545883e+00 1.8263095498656305e+00 0 0 0
736 1 -9.6798566141359121e-01 7.1545445615285432e+00 2.2767436515444007e+01 1 -1 0
607 1 1.6976979820405791e+00 9.8506515527513034e+00 1.6055360517520820e+00 1 0 1
548 1 6.0408151263898118e+00 1.0580382652168048e+01 1.2381436480329875e+00 1 0 0
682 1 4.4767055223886700e+00 9.2321513253233274e+00 2.2670801532598510e+01 2 1 0
761 1 4.7548345827667307e+00 9.0446406181285273e+00 2.0110920220806197e+01 0 0 -1
638 1 3.2304821868874884e+00 1.1326503221409540e+01 -9.5287067248942747e-01 0 0 0
20 1 4.3964270729433119e+00 9.1938451623232567e+00 2.2198268723282606e+00 0 0 -1
59 1 6.6955351621883388e+00 7.8991588770788423e+00 1.7497139354252786e+00 0 0 0
662 1 1.1761744589347849e+01 1.1287327585143823e+01 2.2626781973306592e+01 1 1 -1
48 1 9.0300455925169061e+00 8.8567255358970698e+00 -1.4687916021426948e+00 0 1 -1
676 1 9.9890418753668744e+00 6.7985662842300512e+00 -9.8729180510984527e-01 0 1 0
798 1 6.8707482594982281e+00 9.9776092872250448e+00 -1.3773893301964522e+00 0 0 1
814 1 1.1700421500784723e+01 8.2183504078848149e+00 2.2524505254250499e+01 1 0 0
333 1 1.2501689461670214e+01 6.9763477815588626e+00 4.4091042755766174e-01 1 0 1
669 1 1.5473330144199430e+01 7.3961909523629794e+00 1.1274418752500248e+00 1 0 1
496 1 1.4245602252418122e+01 1.0499852138648448e+01 2.2607511814147681e+01 1 0 0
102 1 1.4035202932564138e+01 9.0671940169702765e+00 -5.5308578462889946e-01 0 0 0
562 1 1.8713803513344690e+01 1.1870949060086042e+01 4.0835580433883856e-01 0 0 0
791 1 1.7177775844323694e+01 8.2520413904652550e+00 2.7431321858841304e+00 1 0 1
521 1 1.8091478874514355e+01 6.9438698352682700e+00 6.9200148824316920e-01 -1 0 0
763 1 1.7101984370184329e+01 8.8451637837292374e+00 -4.7767732101910920e-01 -1 0 1
132 1 1.8746524063451298e-01 9.8638923467951507e+00 -3.3908322675109431e-01 1 1 0
861 1 2.0277430578590206e+01 6.7186872798519000e+00 -9.7238218273077570e-01 -1 1 1
819 1 1.8711131814023187e+01 9.4576893436647040e+00 1.4569237129996002e+00 0 0 1
636 1 1.8348308979259539e+01 7.3656831851603863e+00 2.2476354801923957e+01 -1 0 0
57 1 2.2312850085234786e+01 9.0454136226167758e+00 -7.2957928452014065e-01 -1 0 -1
741 1 1.8339139935876972e-01 1.3291874414440986e+01 2.9252387408519798e-01 1 0 0
859 1 -1.0949476383349439e+00 1.5211777006570051e+01 2.2773600044514584e+01 1 0 0
322 1 7.1339721193621441e-01 1.1021703275264210e+01 2.2472535338119989e+01 0 0 -1
168 1 3.7307424060914474e+00 1.1479264582547440e+01 3.0747566274434388e+00 1 0 1
407 1 3.3184923079822708e+00 1.3152343660970324e+01 6.5996387747598173e-01 0 0 0
575 1 5.6142541075232559e+00 1.4252746372865712e+01 6.0752736999265089e-01 0 0 0
82 1 1.1553148077391810e+01 9.3800968390607409e+00 -5.6343833768871698e-02 1 0 0
629 1 7.2856948252875187e+00 1.2461494378458646e+01 2.0108140265213728e-01 0 0 0
282 1 9.5857575150025252e+00 1.2445704132510922e+01 -4.6057969069945831e-01 1 1 0
455 1 8.5725061633210604e+00 1.4540949940993224e+01 7.0117568224890048e-01 1 0 1
351 1 8.6739010970143529e+00 1.4686083028948344e+01 -1.8355605795614522e+00 -1 0 0
410 1 1.3089310445563839e+01 1.2632043768115688e+01 -1.0895323330878171e+00 0 0 1
91 1 1.7050894980116048e+01 1.1500701904712486e+01 -1.1445223833263714e+00 0 0 0
610 1 1.7922153857198627e+01 1.4121451385861874e+01 2.2516585123771481e+01 -1 0 -1
112 1 1.7196423065001039e+01 1.5940878681765950e+01 -3.7460474080427497e-01 -1 1 0
219 1 1.6765044058459679e+01 1.0989742254993518e+01 1.6418618508974245e+00 -1 0 0
417 1 2.0296013431138757e+01 1.3999113201032117e+01 1.0332281104359580e+00 0 1 0
400 1 1.9424892832839909e+01 9.7610497748759730e+00 -7.7041515715481657e-01 0 0 0
523 1 2.2421068411155670e+01 1.2398332364547768e+01 -2.9052922615122240e-01 -1 0 2
665 1 -3.9944223247752580e-01 1.5575048998853863e+01 5.4885744968068206e-01 1 -1 1
1 1 1.6215162257168816e+00 1.5673403118492017e+01 -9.4451922599617710e-01 0 -1 0
241 1 2.3219823114067079e-01 1.9123948407244871e+01 1.8581219888292897e+00 0 0 -1
209 1 -1.1741954438498634e+00 1.7479565950979435e+01 2.7614371623976188e+00 0 0 1
403 1 6.3173869457530634e+00 1.6439181526816899e+01 -4.0953482093657517e-01 -1 -1 1
204 1 2.4693542836234563e+00 1.5539815020106452e+01 2.2811414470517057e+00 0 0 0
215 1 4.3659747483234703e+00 1.9549846625443028e+01 -5.5808791040363670e-01 1 0 0
96 1 3.9740850729300194e+00 1.8888473948877508e+01 3.3629136445221359e+00 1 -1 0
152 1 6.0654440903118161e+00 1.3781650962452112e+01 2.2453792744741168e+01 0 -1 1
16 1 6.8662300101617344e+00 1.5887915743185349e+01 2.1252353774584574e+01 0 0 -1
124 1 9.5376575522402476e+00 1.9101730881989941e+01 -5.3322471056804011e-01 0 0 1
452 1 9.6709999346951516e+00 1.6519911009144426e+01 -5.0045736265146490e-01 0 -1 0
376 1 8.9416712391122051e+00 1.8140904256411041e+01 2.1594268241146739e+01 0 0 0
265 1 1.2702292042441913e+01 1.9351623473495554e+01 -4.6532781897249414e-01 -1 0 0
370 1 1.1376225345117676e+01 1.8597284275877513e+01 2.2232240696249914e+01 -1 0 -1
402 1 1.4625333276433274e+01 1.6498878766605984e+01 5.5723050667163121e-01 1 0 0
601 1 1.1440343745418899e+01 1.4836075737542000e+01 -2.6762495634735334e-01 -1 -1 1
19 1 1.8097435337690321e+01 2.0411612397758478e+01 2.0053405497208669e+00 0 0 -1
722 1 1.4956030267571665e+01 1.6501308291870814e+01 2.2161526482431650e+01 -1 -1 0
429 1 1.5717882816988572e+01 1.2963195490170801e+01 4.6026277602212240e-01 0 0 0
788 1 1.2579208810735674e+01 1.7066942147372014e+01 -1.3728630495618421e+00 0 -1 2
478 1 1.7802630800978580e+01 1.4063666919699759e+01 1.3621143667879112e+00 1 0 0
589 1 1.6848619036149326e+01 1.8102437134360841e+01 1.8810791967541911e+00 -1 -1 0
701 1 2.1880713894472962e+01 1.5986410485626440e+01 2.0983226038697933e+00 0 0 0
186 1 1.9771080590522114e+01 1.7824245282331752e+01 2.2187873678040519e+00 -1 -1 0
487 1 2.2707574740478801e+01 1.7475513991349715e+01 3.8755160429536128e-01 0 -1 1
435 1 -1.7053425466112133e+00 2.1007265289100147e+01 1.1350163938765050e+00 0 -3 0
342 1 -1.0108015073094370e+00 -1.0303507113450241e+00 2.2180156636787713e+00 0 1 0
242 1 2.2486387273704462e+01 2.2115553392618093e+01 3.3054229238887829e+00 -1 1 0
68 1 5.7734051643975670e-01 1.9374724990830984e+01 2.1235349228964715e+01 1 0 -1
228 1 1.7955973157486999e-01 2.0475391815249264e+01 -4.4310024528638081e-01 -1 -1 1
477 1 2.1099472366694876e+00 1.9064368361275569e+01 -1.1992980676176561e+00 1 -1 -1
863 1 7.9268344085515829e-01 2.1819804452695092e+01 2.1290299547331943e+00 1 0 0
767 1 2.2884732340398823e+00 2.1980288178489676e+01 -1.9757763678744927e-01 0 -1 1
578 1 7.0324632597168639e+00 2.0404342217085215e+01 1.9166566996695381e-01 -1 0 0
90 1 8.1726993343099288e+00 1.8002649939821101e+01 1.4020593423888950e+00 1 0 0
307 1 1.8660719112245332e+00 9.2359387937467596e-01 2.1366102631423214e+01 0 1 0
93 1 2.4496034643833862e+00 2.0928912205522963e+01 2.2055828111335224e+01 0 0 -2
844 1 5.2011452023653204e+00 2.1388853596309392e+01 2.0284640553683655e+00 0 0 0
288 1 8.5921229635462097e+00 1.7346404532887078e+01 3.9916076936997555e+00 0 0 1
361 1 1.0204213894204159e+01 2.0836499409252255e+01 2.2220404279542770e+01 -1 0 -2
234 1 9.1364147476153406e+00 2.1673336754717656e+01 7.1988375479234923e-01 0 -1 0
313 1 4.3410488656445807e+00 6.7310023937252184e-01 -1.5242501767768786e+00 -1 0 1
310 1 1.1506217697422890e+01 1.7234585559170263e+01 1.2438596591888085e+00 0 -1 0
600 1 1.1468785931252290e+01 2.0684977592646476e+01 1.1757500909347800e+00 0 -1 0
864 1 1.3043921742691214e+01 2.1508980128133242e+01 2.8543964948779648e+00 0 0 0
695 1 1.0743629941524654e+01 2.0653486118672028e+01 5.8610781292297185e+00 1 0 0
30 1 1.5234418004410452e+01 1.8857170491106007e+01 -4.2309123078908259e-02 0 0 0
688 1 1.5474821634253791e+01 2.0805305701809640e+01 1.9478267341382409e+00 0 0 0
576 1 1.5575263655636460e+01 2.1578587511408021e+01 -1.3155327502068268e+00 0 0 0
347 1 1.3442500707225308e+01 2.2263206335059891e+01 -1.8818325737439662e-02 0 0 0
438 1 1.6981727967716537e+01 1.9342906996621569e+01 2.2354030889069289e+01 -1 -1 0
175 1 2.1268420563765357e+01 1.9834473874443479e+01 1.7156760795346817e+00 0 0 1
645 1 -1.8053161969428793e+00 1.9311605439828973e+01 -1.0447212975361957e+00 1 -1 1
54 1 2.0187805355802471e+01 2.2711443370176074e+01 3.2443353093359297e+00 0 -1 0
654 1 1.9740571897256590e+01 2.1640919281327058e+01 6.6388914112548625e-01 0 0 1
329 1 2.2698813220981737e+01 1.5064713414798634e+00 3.8614107498435200e+00 -1 0 -1
382 1 2.0665116058962003e+01 2.0998822724596606e+00 5.2701727455209806e+00 0 0 1
101 1 4.6354530259631638e-01 -1.6208006658185519e+00 4.4954835911242021e+00 0 1 -1
621 1 2.3440606689239520e+00 2.3319174578006399e+00 5.0969103123265862e+00 1 0 0
447 1 5.9517194248026151e+00 -1.6893619986869592e+00 6.4552779612759004e+00 0 0 0
721 1 3.7083196490388932e+00 2.0310435694931641e+00 7.7285158366613302e+00 -1 0 0
411 1 4.9849400362022021e+00 1.7486678810120910e+00 3.8040819665808718e+00 -1 1 0
786 1 4.7447292676538488e+00 -1.7229829947572466e+00 3.7772596113548893e+00 0 1 1
778 1 1.3588766037619541e+01 2.2684782806487029e+00 2.8860434696215691e+00 -1 0 1
754 1 9.7893668047196076e+00 7.5426477932770053e-01 5.0883652383499189e+00 0 -1 0
297 1 1.2440186074888816e+01 5.2072051062435587e-01 5.0928768346778970e+00 0 0 0
849 1 1.0871675134000780e+01 -1.5325174404716171e+00 6.3193318933133114e+00 -1 1 1
685 1 1.5031629130814364e+01 -1.0918838985000257e+00 1.9913067478730497e+00 0 -1 1
835 1 2.0402246420479070e+01 2.3699102400051690e+00 2.1976560168222465e+00 1 0 1
650 1 1.4887197585923360e+01 3.8183044291969392e+00 4.6529841295264029e+00 0 0 0
700 1 2.1761881573212683e+01 5.3825127354676550e-01 1.1175987491220889e+00 -1 0 0
357 1 1.4960600562801183e+01 7.7643735894692589e-01 4.0634146271325333e+00 0 1 1
800 1 1.7164879342215659e+01 2.2534777435605974e+01 9.9969839417199047e-01 0 0 1
444 1 1.9449085849465721e+01 -8.3873221660571728e-01 5.2114595319327321e+00 -1 1 0
816 1 -6.7169763744733924e-01 2.9095690430923105e+00 2.6228600559844177e+00 1 1 0
76 1 5.7123080081625996e+00 5.6645020218448199e+00 2.2377406683064070e+01 -2 0 -1
595 1 6.5075932566818269e+00 3.9040103072580603e+00 3.2788686992225111e+00 0 0 0
822 1 6.0266172735336010e+00 7.7983299823259618e+00 4.4330687585159669e+00 -1 1 0
153 1 -5.6061993238279116e-03 5.0908878850868771e+00 6.3562621445120415e+00 1 0 0
678 1 6.2194387139451353e+00 2.9112524920213962e+00 1.2403593723638158e+00 0 1 0
366 1 4.3049099147519101e+00 3.3396918831656830e+00 5.7847459468801770e+00 0 1 -1
727 1 1.1773662310329966e+01 6.2479301258148094e+00 5.9782912535611281e+00 0 0 1
257 1 7.9039359235974764e+00 6.6761975277454111e+00 3.5834175277948535e+00 1 -1 1
118 1 9.0114596098311441e+00 3.7471898640249468e+00 2.5432189888137615e+00 1 0 -1
677 1 5.8996431419009401e+00 1.5182866616657436e+00 6.0709974931383890e+00 -1 1 0
65 1 9.4045485286170276e+00 6.7630273374953074e+00 5.5251074435400227e+00 0 1 0
627 1 1.2368088540874490e+01 3.6387780538455812e+00 4.6114197666563701e+00 -1 0 0
63 1 1.0201582322186486e+01 1.3196316135121784e+00 2.5024512893050934e+00 1 1 0
55 1 1.3756138099687124e+01 5.0736009167221328e+00 6.6259016435125941e+00 0 0 0
7 1 1.2605598259706600e+01 6.3500491033894138e+00 3.6567224508201055e+00 0 -1 -1
431 1 1.7359665349363105e+01 2.6724963021370449e+00 3.2167667517481857e+00 -1 0 0
432 1 1.4144357655231632e+01 5.1328838726785255e+00 1.7349564692932884e+00 1 0 0
339 1 1.6969573931369446e+01 4.5544375456890513e+00 4.9768537758435576e+00 -1 0 0
75 1 2.1089773470965991e+01 5.8661645324473444e+00 4.5866324704948385e+00 -1 -2 -1
260 1 1.8798761179308048e+01 6.6616184427850218e+00 4.4603785240730094e+00 0 1 0
44 1 2.1843163673226805e+01 3.5795757334140546e+00 6.6391899197898985e+00 0 0 0
442 1 2.0748697463719299e+01 5.9789673038640414e+00 2.0566270343856492e+00 -1 0 0
309 1 -6.4811111822196044e-01 5.0589543252862477e+00 1.2354092427501653e+00 1 -1 1
566 1 1.9041195337843419e+01 4.2675410863917111e+00 3.9061865604529098e+00 0 2 1
338 1 -3.1296348726420414e-01 9.0173610189320090e+00 2.4820251201390429e+00 0 0 0
275 1 2.2501567056113281e+01 5.7343322022691821e+00 8.1616008533878652e+00 0 1 0
394 1 -1.7253403180270432e+00 7.1639929145030141e+00 5.3785541187345109e-01 1 0 0
670 1 8.7126317776247775e-01 9.7325056444994420e+00 6.4010720461407997e+00 0 0 1
25 1 8.0761454997204360e+00 8.7882319362636583e+00 4.9791737606601032e+00 0 1 0
750 1 1.2730145125834784e+00 7.6364143479880635e+00 4.3368971858278202e+00 0 -1 1
570 1 4.6912111747941347e+00 5.8792265623409268e+00 4.9031754451555578e+00 1 0 0
66 1 5.0105450907320730e+00 1.0921733367315477e+01 6.7254999108008500e+00 2 -1 0
712 1 9.0955791153042647e+00 1.0345366915810555e+01 7.5607635448589128e-01 -1 0 1
72 1 1.1183254052186266e+01 9.4351232776540499e+00 2.4866045326578305e+00 0 0 0
78 1 9.6404425968773797e+00 6.0654584804148808e+00 1.2102102442185676e+00 -1 0 0
780 1 1.0143458780901993e+01 1.1675287759192733e+01 6.3184243668539048e+00 0 -1 0
114 1 1.3441744341001170e+01 9.0830428180923999e+00 1.6508529981054465e+00 -1 0 -1
751 1 1.5038219310638491e+01 7.0096143427505933e+00 7.0879943823257570e+00 0 0 1
516 1 9.3071349668386834e+00 1.0328395780427924e+01 3.7534762375925892e+00 0 2 1
388 1 1.5238809688855731e+01 7.0442470417991974e+00 3.7958260449014820e+00 -1 0 1
782 1 1.4326024532620268e+01 9.3387449419155377e+00 3.8247758334311670e+00 -1 0 0
584 1 2.0100675520043549e+01 8.5493582186407338e+00 3.6250608751812643e+00 -1 0 1
552 1 2.2177474935006639e+01 1.0027540614655040e+01 2.5823707688207986e+00 0 1 1
465 1 -1.6269875826997016e+00 6.8414423640514022e+00 3.3743207488264257e+00 0 -1 0
625 1 1.2286138921488656e+00 1.0421222249140037e+01 4.2711103779424464e+00 -1 0 0
107 1 -3.3123230782306784e-01 1.1322400015187123e+01 1.4107093338694849e+00 1 1 0
585 1 1.3392137560318280e+00 1.3232833212748696e+01 3.1245475990871872e+00 1 -1 0
462 1 -5.1403676388198882e-01 1.2705701475109597e+01 4.8705978260182379e+00 0 -1 1
494 1 6.5863348914994351e+00 1.0187406120806990e+01 3.5625432201846823e+00 0 1 0
196 1 2.1841465538968348e+00 1.5217552959285491e+01 5.3086393338620725e+00 0 0 1
125 1 6.2489973664593936e+00 1.4161777324117669e+01 4.9658137318119753e+00 0 0 0
170 1 4.4182977892534279e+00 1.4054676104886829e+01 2.9033290560791882e+00 0 -1 0
108 1 1.8732280579615421e+00 1.2185043155380200e+01 5.8256825700349957e+00 0 0 -1
805 1 4.5735556954340799e+00 1.2596437587518102e+01 5.0286077323165612e+00 0 1 0
738 1 7.8841465049942263e+00 1.2787026245410194e+01 2.6728952040799214e+00 0 0 1
110 1 7.5543476616069904e+00 1.2236901911566820e+01 5.0637547732004311e+00 0 1 0
602 1 8.0376524512094818e+00 1.5131126791150114e+01 3.5792128812695965e+00 0 -1 1
205 1 1.1501214161329873e+01 1.2354269757763362e+01 2.0614262729960324e+00 0 0 0
11 1 9.7726760423674541e+00 1.2952743923328011e+01 4.2885777753761891e+00 0 0 0
418 1 1.2187894071081548e+01 1.2342060523462129e+01 5.0422432144799929e+00 -1 0 0
744 1 9.2118361825263886e+00 1.3555393955389141e+01 7.3693716899508059e+00 0 0 1
184 1 1.7311041786971650e+01 1.0258420107491441e+01 4.4696002408812818e+00 1 0 0
268 1 1.6568394533199029e+01 1.2717352193764794e+01 5.7737964711432408e+00 -1 0 0
262 1 1.3487393630041602e+01 1.1431631186591257e+01 6.8405903833864548e+00 -1 0 -1
104 1 1.7487596378004991e+01 1.3797877516392468e+01 7.6904438001244744e+00 0 1 0
556 1 2.0522272539157690e+01 1.1745414531960295e+01 1.8486624521562118e+00 0 0 1
503 1 1.8922868588506141e+01 1.2328638176976572e+01 3.6204631984483395e+00 -1 -1 0
85 1 2.0085510488631108e+01 1.0702045941079144e+01 4.9807189500233360e+00 1 -1 0
484 1 2.1238185713364132e+01 1.4962697694419962e+01 4.2827931714178291e+00 -1 0 0
286 1 2.1907064471975133e+01 1.1903767621110624e+01 4.4191609606102338e+00 0 0 -1
471 1 -1.5068729398198280e+00 1.7233687378272592e+01 5.0260451401965893e+00 1 -1 0
138 1 2.2518070813584021e+01 1.3311243798237498e+01 2.3276002217135630e+00 0 -1 1
565 1 2.2689845310284107e-01 2.0536426895344690e+01 3.9667834919468774e+00 1 1 0
569 1 -4.4699881347205228e-01 1.4769929055114073e+01 3.4038335027269593e+00 1 -1 0
109 1 2.9206687138963745e+00 1.9715580403442672e+01 1.1551707674460585e+00 0 0 0
187 1 3.7959468279090092e+00 1.6883728821658714e+01 4.0164461580211777e+00 1 0 1
317 1 5.1063439915688775e+00 1.5201286344799216e+01 6.5130174852344016e+00 -1 -1 0
291 1 8.5352989727562056e-01 1.7018112435003193e+01 3.8652234262662573e+00 -1 -1 1
369 1 6.0270338357824977e+00 1.5950422405605829e+01 2.7902361921610979e+00 0 0 1
481 1 8.0422295576690654e+00 1.5563990480408799e+01 5.9015902855680515e+00 -1 0 1
34 1 6.5735178764386868e+00 1.7421509868551826e+01 4.7516554141378107e+00 0 0 0
579 1 1.0732650634862908e+01 1.8205651687353928e+01 4.3648462453533581e+00 1 -1 1
328 1 1.0153972121268719e+01 1.5064547517785408e+01 2.4864670543955629e+00 0 0 0
391 1 1.4069857534612206e+01 1.4081211648115346e+01 1.7148278952214417e+00 0 -1 0
270 1 1.3257555633083124e+01 1.6040595117877647e+01 3.4793805160206941e+00 0 1 -1
298 1 1.0253930272900773e+01 1.5016347548773801e+01 5.7867185265249201e+00 0 0 1
240 1 1.2104395223169266e+01 1.4223299862952487e+01 3.4185503001807254e+00 0 0 0
491 1 1.4571846209854510e+01 1.7690299543174092e+01 2.5556064634209732e+00 0 1 0
136 1 1.9026273668264619e+01 1.5436546735925662e+01 3.0056624113997139e+00 0 0 1
483 1 1.4790023916460344e+01 1.2144164105147697e+01 3.9230638306821328e+00 -1 -1 1
94 1 1.4968686069895734e+01 1.5669114363844573e+01 5.3348956617473027e+00 0 0 -1
674 1 1.7773593625863473e+01 1.7499358379281194e+01 4.2613704305796567e+00 -1 -1 1
193 1 2.0593436956625766e+01 1.7237287049648387e+01 4.6221379247690892e+00 -1 -1 1
348 1 1.9215841442585273e+01 1.5960666374641708e+01 7.1597803895913064e+00 0 -1 0
543 1 1.8700426772046637e+01 1.9686674937937816e+01 4.5806617813110435e+00 0 0 0
119 1 -2.2283686798038552e-01 1.5535272104800097e+01 5.7748037153226726e+00 1 1 -1
732 1 2.2792245256025918e+01 2.1281454049006562e+01 6.4509387932910700e+00 -1 -1 1
458 1 3.0787797383013142e+00 2.1008262023304354e+01 4.1040222820558574e+00 0 0 1
398 1 2.8663816479796984e+00 2.2689772686498166e+01 5.4779620308844397e+00 0 -1 1
580 1 6.3369336301882937e+00 1.9212008615849584e+01 2.8778333061383470e+00 0 0 1
567 1 5.1349435121581513e+00 2.1016659409931005e+01 5.3012150560559688e+00 1 -1 0
774 1 2.2356015573182706e+00 -6.8868802178891586e-01 2.6469991532211199e+00 0 0 1
120 1 4.5853092823701663e-01 8.0685051098928606e-01 3.4413514196914239e+00 -1 2 0
626 1 3.4366647020640917e+00 1.7647558678891755e+01 6.2241567571119925e+00 -1 -1 1
122 1 7.2973868094256966e+00 2.0164723525680238e+01 4.6420046008724745e+00 0 0 0
794 1 7.5359930652549858e+00 -5.0946863971076106e-01 4.6588472547292206e+00 0 1 1
318 1 9.4378839461010653e+00 1.9965265193868312e+01 2.8877535559427705e+00 -1 0 0
842 1 1.3321325880704922e+01 1.9639893850167780e+01 4.5318133312841002e+00 -1 -1 1
815 1 1.6499539169694913e+01 1.8577123620155650e+01 6.6581772933704881e+00 1 0 1
220 1 1.5549183652671580e+01 2.0098585456050710e+01 4.4147911007508549e+00 -1 -1 0
69 1 1.1423883639239108e+01 -1.2429821705946682e+00 3.9360080142606217e+00 0 1 -1
397 1 1.3706081565256927e+01 2.2462227311480294e+01 4.9144963806750006e+00 0 0 0
773 1 1.9985410581191061e+01 2.1628087209494581e+01 6.1076708748821273e+00 -1 0 -1
424 1 1.7399218610050283e+01 -2.3277408288198298e-01 2.7488626108770138e+00 0 1 0
527 1 2.1254945227516878e+01 2.0220149565877534e+01 4.2636017794257439e+00 0 -1 0
653 1 2.2105911360063416e+01 -6.8181616129788181e-01 4.5228745700074349e+00 -2 1 0
83 1 2.2315557987948708e+01 1.3264064415831622e-01 6.8266928312390629e+00 -1 0 -1
851 1 5.8219041041462372e-01 6.3526257852149814e-01 8.5777076383534485e+00 -1 2 1
571 1 1.1722825032140999e-01 -1.6145504834308690e+00 8.0574351832516165e+00 1 1 1
545 1 -4.5936503744100510e-01 2.9718516630251886e+00 1.2400632051737899e+01 0 2 0
760 1 1.1091062107112450e+00 8.9370226120391627e-01 1.1562169083299681e+01 1 0 1
331 1 8.9605210520853429e-01 4.5568534892820867e-01 6.1974066385137725e+00 0 0 0
591 1 5.8401424503506743e+00 -1.7294187179888965e-01 8.7870891273160101e+00 1 0 0
771 1 4.7408064698203374e+00 1.8740730035009439e+00 9.9579260898389776e+00 0 0 1
639 1 8.5084315470892715e+00 2.2437427121113807e+01 7.9889827840728600e+00 0 -1 0
683 1 8.2975260546091185e+00 1.3760507482803058e-01 7.0707753004365994e+00 0 1 0
343 1 8.0869256779032028e+00 -3.9758946029621345e-01 9.9623980065295523e+00 0 0 0
646 1 6.1118610679250356e+00 2.8854032621796266e+00 8.1463702784334657e+00 1 0 0
707 1 1.2633754602928752e+01 7.6411132578658403e-01 8.1318781698780445e+00 0 0 0
524 1 7.3102482701368370e+00 1.9986561157517551e+00 9.9684561190865804e+00 0 0 0
169 1 1.4555486326656242e+01 -1.3668999085512616e+00 7.7001180505884870e+00 -1 1 0
533 1 1.6645214576507751e+01 -2.5257323778421270e-01 8.6108203318624739e+00 -1 1 0
692 1 1.4781217689665805e+01 2.1288686050489503e+01 9.4828769767127064e+00 0 -1 0
781 1 1.6858776592017929e+01 2.0473369517332398e+00 5.2621635283112251e+00 0 1 1
495 1 1.6894025748383374e+01 -1.2318921250743575e+00 6.0544771068971555e+00 0 1 0
292 1 1.8027119703285592e+01 -6.6422082580133623e-01 1.0556669193503993e+01 0 1 0
854 1 1.8668194096522676e+01 2.0679025106958751e+00 9.4818719258720208e+00 -1 0 0
39 1 2.0218133941164503e+01 7.9056939050054043e-01 1.1144879889022173e+01 0 0 0
256 1 2.0998500716386939e+01 1.8160703031389489e+00 8.2813584707806971e+00 0 1 1
373 1 -6.9906740194324857e-01 2.5588652928044002e+00 6.9831289238295220e+00 1 1 0
17 1 -1.5597416309978620e+00 3.1980466404729588e+00 9.4880338152083272e+00 1 0 -1
414 1 6.3676887503223401e-01 4.2587215404082270e+00 9.3119536801481413e+00 0 0 -1
451 1 3.8925722131781009e+00 4.0957190734366966e+00 9.9342304400040700e+00 1 0 0
762 1 2.3489881264158097e+00 6.0250630069278541e+00 8.5471217215339657e+00 0 0 0
806 1 7.7220720108486045e+00 4.8756102310167835e+00 5.8265426045962290e+00 0 0 0
529 1 2.3447317707609727e+00 4.7081319757255198e+00 5.0665193184053257e+00 -1 0 0
426 1 1.0067809444665581e+01 1.7086718149663258e+00 1.0235146428869335e+01 1 1 0
84 1 7.8735248937726086e+00 2.3802740653536261e+00 4.9633188228691791e+00 0 0 0
206 1 8.4584126176174763e+00 3.8245940426155274e+00 8.0402294176971960e+00 0 1 0
224 1 1.1979635775955241e+01 3.3376614343572886e+00 7.5160648988634406e+00 -1 -1 0
745 1 1.5158432695756915e+01 8.7577076677892740e-01 6.5502397663282554e+00 -1 0 0
723 1 1.2660940133716950e+01 4.3067500074067198e+00 1.0726488878755287e+01 -1 0 0
812 1 1.3878871974714604e+01 1.7866390171139006e+00 1.0011373639305928e+01 0 0 1
404 1 9.9123279255221917e+00 3.4513464724069607e+00 5.4778451920855868e+00 1 1 1
81 1 1.6374207512756367e+01 5.3613728807016390e+00 1.2052826956615874e+01 0 0 0
517 1 1.5992478700397808e+01 3.4860690732832462e+00 1.0251373867559630e+01 0 1 0
536 1 1.4592548112354399e+01 5.0567985209312027e+00 8.9883676248478377e+00 0 0 0
515 1 1.9641773131074437e+01 4.9802581693869898e+00 7.0618039222010172e+00 0 0 0
652 1 1.8866138075349212e+01 7.7653238168482763e-01 7.1456364528600487e+00 0 1 0
437 1 1.7789602122974856e+01 4.1404798013040045e+00 8.7223513940822262e+00 0 0 0
143 1 2.0793486122373139e+01 3.9759047870783282e+00 9.6097779111624284e+00 0 1 1
803 1 1.5912602519785317e+01 2.4487514580261549e+00 8.0139010547444318e+00 -1 -1 0
604 1 1.7926147282961458e+00 8.6581610114468646e+00 1.0636138458028178e+01 0 0 1
372 1 -3.6905214928753838e-01 6.5816368981690623e+00 1.0511247518208355e+01 1 0 0
105 1 -1.5666002311520015e+00 8.9175969853348462e+00 7.3972938207412815e+00 0 0 -1
130 1 6.9658890416875590e+00 8.0768277363776768e+00 6.9705305503643329e+00 1 1 -1
793 1 6.7798029597779053e-01 7.8350942594949293e+00 8.2734504487994478e+00 0 -1 0
74 1 2.9543029152110201e+00 8.3341618669666673e+00 7.2603487987899964e+00 0 0 -1
599 1 7.1126627825072113e+00 6.6897944804202085e+00 9.7470014540618841e+00 1 -1 0
704 1 8.5589498079797277e+00 1.1117380156461328e+01 8.6906612173701649e+00 -1 0 0
729 1 9.3367121798637225e+00 9.4647194618037496e+00 6.7442659323867344e+00 0 0 0
137 1 5.2430288116108708e+00 1.1453934923825846e+01 9.5337989569414674e+00 0 1 -1
792 1 7.4069625894757003e+00 9.1527875967294463e+00 9.3559729218595873e+00 1 1 0
779 1 1.2143306709138143e+01 7.5088696696736710e+00 9.3141745814643180e+00 -1 1 1
448 1 1.5451981209608551e+01 9.5099085654388613e+00 6.0217580165271434e+00 0 1 0
173 1 9.5876280166635386e+00 8.2736284196429004e+00 9.0589996063513905e+00 0 -1 0
33 1 1.6809997564882941e+01 7.6061876968051960e+00 5.3336114404949750e+00 -1 0 0
245 1 1.6520406953417943e+01 8.6512004321591522e+00 8.1656996233105001e+00 0 0 0
734 1 1.4715764714376730e+01 7.6680493494683031e+00 9.9113078819977396e+00 1 0 1
409 1 1.3677468160305587e+01 9.5371959337002536e+00 8.6831348516721700e+00 0 0 -1
356 1 1.8764947018505765e+01 8.1144464230553961e+00 6.9040589835277020e+00 -1 0 0
719 1 2.0539824961457676e+01 7.3349884760429287e+00 8.6621700110966220e+00 0 1 0
399 1 1.8826988737452226e+01 8.8875607824789533e+00 9.0424747552113445e+00 0 0 0
387 1 2.1294997913423707e+01 8.0404539745554917e+00 5.6628131228225023e+00 0 0 1
117 1 1.7835391510816663e+01 1.0201996137918483e+01 6.7311698103094404e+00 0 0 0
378 1 8.8804718075783406e-01 1.3643316103870696e+01 7.3552898779870306e+00 0 -1 1
514 1 7.7145932694836461e-01 1.0942013393626548e+01 8.5092116044539807e+00 0 0 0
294 1 -1.0753654486047479e+00 1.1784261120121345e+01 7.2482877551264062e+00 0 -1 0
359 1 -1.2791892023805282e+00 1.1532550652842133e+01 9.8297957784239962e+00 1 0 1
375 1 6.8627206384747934e+00 1.3378436495580722e+01 7.4738230837706192e+00 1 -1 0
615 1 2.9681988160422579e+00 1.1131395278936274e+01 1.0424551173962858e+01 0 0 0
828 1 3.1682746391069787e+00 1.3705217079090202e+01 1.0146963273523253e+01 0 0 0
469 1 2.9852020475734347e+00 1.0531573519270312e+01 8.2189739900727563e+00 0 0 -1
253 1 6.8102757909449627e+00 1.2019985652679367e+01 1.1521997185068869e+01 0 0 0
423 1 8.3915389751059077e+00 1.3160598169512584e+01 9.9198984345248018e+00 0 1 0