LAMMPS (31 Mar 2017)
OMP_NUM_THREADS environment is not set. Defaulting to 1 thread. (../comm.cpp:90)
  using 1 OpenMP thread(s) per MPI task
units metal
atom_style atomic
boundary p p p

lattice fcc 3.5
Lattice spacing in x,y,z = 3.5 3.5 3.5
region         box2 block 0 6 0 6 0 6
create_box 1   box2
Created orthogonal box = (0 0 0) to (21 21 21)
  1 by 1 by 1 MPI processor grid
create_atoms   1 box
Created 864 atoms

mass * 63.55

pair_style table linear 8000
pair_coeff * * morse.table morse_1 6.0
WARNING: 1 of 8000 force values in table are inconsistent with -dE/dr.
  Should only be flagged at inflection points (../pair_table.cpp:476)

timestep       0.001

velocity all create 300 3512949 rot yes dist gaussian

# dump           1 all custom  1000 funcder_1.dump id type x y z vx vy vz
thermo_style   custom step cpu etotal pe ke temp vol press pxx pyy pzz pxy pxz pyz lx ly lz xy xz yz
thermo_modify  flush yes
thermo         1000

fix 1 all npt temp 1500 1500 0.1 iso 1 1 1.0
run 100000
Neighbor list info ...
  update every 1 steps, delay 10 steps, check yes
  max neighbors/atom: 2000, page size: 100000
  master list distance cutoff = 8
  ghost atom cutoff = 8
  binsize = 4, bins = 6 6 6
  1 neighbor lists, perpetual/occasional/extra = 1 0 0
  (1) pair table, perpetual
      attributes: half, newton on
      pair build: half/bin/atomonly/newton
      stencil: half/bin/3d/newton
      bin: standard
Per MPI rank memory allocation (min/avg/max) = 3.216 | 3.216 | 3.216 Mbytes
Step CPU TotEng PotEng KinEng Temp Volume Press Pxx Pyy Pzz Pxy Pxz Pyz Lx Ly Lz Xy Xz Yz 
       0            0   -854.35662   -887.82207    33.465452          300         9261    129535.46     129666.7    129543.38    129396.29   -56.307691   -93.634449   -97.427557           21           21           21            0            0            0 
    1000    1.1906781   -651.88901   -778.22339    126.33438    1132.5206    11261.277    9443.7398    11227.042    4759.9161    12344.261    2617.8634    779.61842   -179.25572    22.414508    22.414508    22.414508            0            0            0 
    2000     2.221431   -397.52341   -563.28451    165.76109    1485.9602    14287.658    4419.7623     2351.001    3028.8562    7879.4295   -2535.3715   -1216.5832   -2591.4166    24.265376    24.265376    24.265376            0            0            0 
    3000    3.1066291   -357.89982   -518.95889    161.05907     1443.809     15342.27     440.0206    2337.9365   -720.75806   -297.11662    411.47412   -804.85827    -1346.579    24.848292    24.848292    24.848292            0            0            0 
    4000     3.981385   -352.80965   -524.28331    171.47366    1537.1703    15292.281    712.54487   -2987.3326    1157.1447    3967.8225   -858.77111   -2022.3601   -580.07713    24.821275    24.821275    24.821275            0            0            0 
    5000      4.85571     -361.165   -529.34939     168.1844    1507.6838    15081.952    2685.1612    2456.0211    4395.7613    1203.7013    5259.4868   -1148.9701    1538.1621    24.706953    24.706953    24.706953            0            0            0 
    6000    5.7314491   -348.01022   -520.40321    172.39299    1545.4116    15543.472   -634.42438     2350.101    -2760.114   -1493.2601    -806.0236    2014.0462   -2311.7086    24.956443    24.956443    24.956443            0            0            0 
    7000    6.6145229   -351.04428   -517.62013    166.57585    1493.2641    15573.321   -2073.0279   -1676.2431    -2799.836   -1743.0047   -73.931154   -1340.5232   -121.20472    24.972407    24.972407    24.972407            0            0            0 
    8000    7.4883139   -364.95146    -529.8924    164.94094    1478.6079     15330.98   -255.43519   -3246.8364    1919.4622    561.06865    614.39006    1425.3018    2301.2477    24.842196    24.842196    24.842196            0            0            0 
    9000     8.370703   -362.99188   -530.00074    167.00886    1497.1458    15152.599    1689.9997   -3684.1348    4295.6938      4458.44   -1026.1998   -257.01977    1040.4441     24.74547     24.74547     24.74547            0            0            0 
   10000     9.253233   -338.86472   -513.33257    174.46785    1564.0116     15715.73   -2025.0486   -1837.9023    -2378.274   -1858.9696   -1220.9051    516.03105    717.73183    25.048296    25.048296    25.048296            0            0            0 
   11000     10.13784   -365.84319   -540.48146    174.63828    1565.5394    15114.114   -3575.1375   -4780.5942   -4526.1904   -1418.6278    1090.3777    349.58471   -802.89745    24.724502    24.724502    24.724502            0            0            0 
   12000    11.016426   -354.64672    -521.9511    167.30438    1499.7949    15407.261   -275.51684   -2228.4706   -350.27974    1752.1999    1149.3234    1682.4784    2753.3718    24.883329    24.883329    24.883329            0            0            0 
   13000     11.87368   -351.31873   -520.17782    168.85909     1513.732     15552.27   -2192.6672    -362.8867   -2636.6979   -3578.4171   -1525.7853   -1182.7159    166.77195     24.96115     24.96115     24.96115            0            0            0 
   14000    12.737636   -354.54973   -519.05578    164.50605    1474.7093    15606.262    -1623.947    541.42909   -1271.7541   -4141.5159   -3196.8744    1718.9261    157.71602    24.990002    24.990002    24.990002            0            0            0 
   15000    13.620539   -345.82931   -521.18785    175.35853    1571.9961    15408.608    1257.5711    1721.2335    2491.4829   -440.00308    360.42419   -894.08009    1562.1669    24.884054    24.884054    24.884054            0            0            0 
   16000    14.518313   -352.92147   -518.70154    165.78007    1486.1303    15457.462    249.56948   -999.07514    325.62479    1422.1588   -1985.7098    1827.6144   -1078.5721    24.910325    24.910325    24.910325            0            0            0 
   17000    15.380804   -344.42316   -512.76372    168.34057    1509.0838     15929.91   -1707.7276   -328.71321   -2247.9655    -2546.504   -272.18598    722.19493   -401.45948    25.161572    25.161572    25.161572            0            0            0 
   18000    16.233869   -364.20946   -531.12888    166.91942     1496.344    15211.594    2193.6974    2886.3226    1359.9333    2334.8362   -90.628298   -2016.7041   -1730.5592    24.777543    24.777543    24.777543            0            0            0 
   19000    17.118002   -366.77051   -528.17495    161.40444    1446.9051    15300.252    132.80451   -3121.2817    112.02308    3407.6721    96.269225   -1033.2978   -1557.3195    24.825587    24.825587    24.825587            0            0            0 
   20000    17.979127   -348.17031   -513.97017    165.79986    1486.3077    15708.165   -3257.7827   -2111.1071   -3409.6614   -4252.5797   -1751.3799    1589.8812    1108.3879    25.044276    25.044276    25.044276            0            0            0 
   21000    18.836587   -353.12432   -524.74059    171.61627    1538.4487    15431.478   -1003.1522   -2606.0169    1025.2351   -1428.6747   -68.245131    682.02042    1487.3979    24.896359    24.896359    24.896359            0            0            0 
   22000     19.70015   -354.38983   -512.90702    158.51719    1421.0224    15602.673   -388.56076    2034.4624   -2061.5158   -1138.6288    803.41349   -192.74447   -861.71067    24.988086    24.988086    24.988086            0            0            0 
   23000    20.558997   -368.34467   -533.32555    164.98088     1478.966    15037.529    2538.6542    1690.3677    2394.1557    3531.4392    2450.1286    734.65629    2735.7867    24.682671    24.682671    24.682671            0            0            0 
   24000    21.432651   -359.54353   -524.61819    165.07466    1479.8067    15384.063   -2117.0948   -1585.1503   -562.84649   -4203.2876    1325.0549   -378.09721    2159.7603    24.870834    24.870834    24.870834            0            0            0 
   25000    22.297761   -341.96246   -519.21942    177.25696    1589.0145    15688.989   -2992.9807   -1734.7908   -4445.1506   -2799.0007    1313.3811    2588.1083   -620.55532    25.034081    25.034081    25.034081            0            0            0 
   26000    23.153332   -368.28321   -535.46308    167.17988    1498.6788    15050.619    1911.1699    276.88049    3983.5635    1473.0658    720.89139   -675.57766   -677.49755    24.689831    24.689831    24.689831            0            0            0 
   27000    24.026402   -339.14021   -507.15934    168.01912    1506.2022    15616.106    2816.1459    3804.6978     1031.905     3611.835   -2578.4721    2441.6536    905.57312    24.995256    24.995256    24.995256            0            0            0 
   28000     24.87571   -352.18527   -521.31425    169.12898    1516.1515    15301.805    5002.9419    4595.9587    8253.9505    2158.9165    1164.4962    1683.0341   -801.16736    24.826427    24.826427    24.826427            0            0            0 
   29000    25.736626   -337.82303   -519.46659    181.64356    1628.3381    15605.182    -2334.269   -4604.9013    290.85903   -2688.7647    2547.4297   -1436.3823   -721.23279    24.989426    24.989426    24.989426            0            0            0 
   30000    26.590194   -368.54877   -531.81985    163.27107    1463.6385    15252.533   -584.17208   -1046.0144   -1980.0959     1273.594   -1213.6869   -612.79982   -397.48244    24.799751    24.799751    24.799751            0            0            0 
   31000    27.467447   -369.47082   -527.53101     158.0602    1416.9257    15208.998    1057.7575    3668.7123    2086.4114   -2581.8513    3913.8957    740.09756    1037.8107    24.776134    24.776134    24.776134            0            0            0 
   32000    28.341073   -342.53165   -513.66586    171.13421    1534.1273     15474.99    1954.9861    1310.6845    1391.8674    3162.4065    1667.0843    571.72204   -696.57613    24.919738    24.919738    24.919738            0            0            0 
   33000    29.194349   -340.46622   -511.67999    171.21377    1534.8405    15577.868    2907.2404    2212.2149    1550.8381    4958.6683    2569.5749   -1220.9836   -368.13028    24.974838    24.974838    24.974838            0            0            0 
   34000    30.065727   -362.56755   -537.14113    174.57358    1564.9594    15075.085   -1668.7112   -2432.2373   -1658.1528   -915.74343    2048.6716   -1955.1784    834.30813    24.703203    24.703203    24.703203            0            0            0 
   35000    30.933489    -355.5005   -520.63891    165.13841    1480.3781    15316.681     1629.052    99.546858   -98.754109    4886.3633      515.892   -1485.8876    -452.9888    24.834469    24.834469    24.834469            0            0            0 
   36000    31.797046   -342.76476   -512.25936    169.49459     1519.429    15793.193    283.14823   -1569.6776    934.13108    1484.9912    611.36076    1215.4468   -4913.1271    25.089383    25.089383    25.089383            0            0            0 
   37000    32.650111   -346.48263   -512.56711    166.08449    1488.8592    15713.286    -786.6149   -3606.2514    2023.9172   -777.51056    889.65303    3174.1687    1096.0709    25.046998    25.046998    25.046998            0            0            0 
   38000    33.544943   -350.29126   -523.14324    172.85199    1549.5263    15356.948   -1023.2327   -436.04484   -1539.5428   -1094.1104    2940.1848     2071.152    -1428.122    24.856213    24.856213    24.856213            0            0            0 
   39000    34.431967   -364.22908    -530.3343    166.10522    1489.0451    15310.006   -3615.4569   -2087.7745   -3089.7065   -5668.8897   -225.69267    2634.3244    2981.7657    24.830861    24.830861    24.830861            0            0            0 
   40000    35.296192   -359.55566   -528.30627    168.75061    1512.7596    15384.979    -3863.474   -2553.6941   -5131.4502   -3905.2775   -1157.8834   -3193.6756    553.39947    24.871328    24.871328    24.871328            0            0            0 
   41000    36.175939   -372.88849    -537.9981    165.10961      1480.12    15017.967   -1147.2351   -19.680964   -1059.3357   -2362.6886   -560.83021   -1400.2517   -1235.4329    24.671963    24.671963    24.671963            0            0            0 
   42000    37.046631   -350.27816   -515.73979    165.46163    1483.2756        15508    1182.4515    3711.4246    -322.8954    158.82538    4874.5357   -770.91737   -471.86705    24.937444    24.937444    24.937444            0            0            0 
   43000     37.89912    -334.4154   -510.42957    176.01417    1577.8736    15617.114    2181.7537    5596.1952    2211.1216   -1262.0556   -1568.2871    1761.7993    172.67545    24.995794    24.995794    24.995794            0            0            0 
   44000    38.758603   -360.18823   -528.58864    168.40041    1509.6202    15096.355    2898.8999    1112.4913     1471.052    6113.1564    431.60351     2442.375    2524.7788    24.714815    24.714815    24.714815            0            0            0 
   45000    39.632297    -360.2317   -526.51631    166.28461    1490.6532    15386.126   -1945.9292   -4160.6276   -3610.5438    1933.3839    782.34888    -45.32065   -377.13079    24.871946    24.871946    24.871946            0            0            0 
   46000    40.514664   -376.19046   -544.22471    168.03425    1506.3379     14918.01   -1620.1091   -3589.0619   -2263.1258    991.86023    271.86807    69.354878    2246.2194    24.617104    24.617104    24.617104            0            0            0 
   47000    41.391668   -352.55123   -519.44197    166.89074    1496.0868    15308.821    2805.6309    3801.2848    2580.3439    2035.2639    36.060665    434.28405    158.12224    24.830221    24.830221    24.830221            0            0            0 
   48000    42.252552     -347.647   -516.68136    169.03436    1515.3033    15652.052   -255.06066   -4137.2414    3328.3848    43.674639    1112.9816   -83.441752     517.3441     25.01442     25.01442     25.01442            0            0            0 
   49000    43.133952   -378.33841   -541.45726    163.11884    1462.2738    14837.289    1181.6109   -201.68045    2950.6413    795.87178   -525.43504    392.33497   -684.71428    24.572623    24.572623    24.572623            0            0            0 
   50000    44.023828   -362.83778   -531.55452    168.71674    1512.4559     15089.01    3729.0583    5015.9699    4668.7474    1502.4575   -2644.3472    2006.4081    881.68101    24.710806    24.710806    24.710806            0            0            0 
   51000    44.894139   -369.89223   -534.65071    164.75848    1476.9723    15038.004    1235.2796    -1507.521    4135.0044    1078.3553    267.23695   -2105.1764   -2272.3598    24.682931    24.682931    24.682931            0            0            0 
   52000    45.757039   -346.75492   -519.52558    172.77066    1548.7972     15575.97   -1592.9097   -3888.2078   -1635.2321    744.71069   -1121.4004    -3602.929   -2300.6536    24.973824    24.973824    24.973824            0            0            0 
   53000    46.616258   -365.35703   -535.58579    170.22876    1526.0104    15240.134   -1597.5456   -1039.6735   -360.83427   -3392.1289   -2569.5044   -234.55872   -890.05982    24.793029    24.793029    24.793029            0            0            0 
   54000    47.479021   -354.41883   -523.57307    169.15425     1516.378    15362.148   -195.44265   -2983.7725   -1924.3317    4321.7762    5493.0714   -94.743795   -457.21306    24.859019    24.859019    24.859019            0            0            0 
   55000    48.351704   -368.21782   -534.35527    166.13745     1489.334    15194.088   -961.79618    288.78189   -3.8921402   -3170.2783   -105.70978    2772.9513    7.2281346    24.768034    24.768034    24.768034            0            0            0 
   56000    49.209232   -357.95723   -525.43664     167.4794    1501.3639    15514.322   -3134.4086   -5350.2782   -2563.3953   -1489.5525    -1843.435   -983.81991    776.52816    24.940832    24.940832    24.940832            0            0            0 
   57000    50.080732   -360.41935   -526.26338    165.84404    1486.7037    15523.521    -4602.273   -7714.6346   -3153.1988   -2938.9856     1353.111    1679.2639     1872.587     24.94576     24.94576     24.94576            0            0            0 
   58000     50.94291   -363.48029   -528.72812    165.24783     1481.359    15396.991   -2228.8437   -2511.2601    883.41945   -5058.6904   -34.931465    481.08551   -1686.2088    24.877799    24.877799    24.877799            0            0            0 
   59000     51.81582   -358.01418   -525.74474    167.73057    1503.6155    15290.488    801.68192   -2536.0888    2051.1292    2890.0053    -2382.649   -614.20479    1634.7845    24.820305    24.820305    24.820305            0            0            0 
   60000    52.678688    -367.0214   -539.61511    172.59372     1547.211    15033.962    823.63324   -1212.8582    1847.9651    1835.7928   -1230.7191   -998.53881    -1271.095    24.680719    24.680719    24.680719            0            0            0 
   61000    53.572316   -363.85141   -522.29676    158.44535    1420.3784    15378.204   -853.38823   -1514.6814   -191.96517   -853.51807    1992.6755   -1767.3743    1378.7796    24.867676    24.867676    24.867676            0            0            0 
   62000    54.445549   -377.97056   -538.78141    160.81085    1441.5839    14973.921   -196.00268    503.41988    171.14044   -1262.5683     359.0695   -3128.4177   -2056.3619     24.64782     24.64782     24.64782            0            0            0 
   63000    55.325408   -346.40001   -520.59184    174.19183    1561.5372    15481.157   -270.80758   -314.40772    1150.0014   -1648.0164    502.98232   -1774.1482    251.99533    24.923047    24.923047    24.923047            0            0            0 
   64000    56.191256   -353.88662   -521.43853    167.55191    1502.0139    15428.987    794.49736    -1400.353    1514.2739    2269.5712    1051.9353   -31.054227   -2332.3482    24.895019    24.895019    24.895019            0            0            0 
   65000    57.048313   -343.10887   -515.11692    172.00805    1541.9608    15713.757   -1472.4658   -2919.8995    395.46938   -1892.9672    1095.8264    2320.6395   -760.55925    25.047248    25.047248    25.047248            0            0            0 
   66000     57.90993   -352.69642   -523.23124    170.53482    1528.7541    15663.788   -2603.2085   -2834.0586   -4820.2983   -155.26853   -1815.7382    226.19023     832.0532     25.02067     25.02067     25.02067            0            0            0 
   67000    58.758012   -348.12589   -517.43207    169.30618      1517.74    15574.692   -1500.1508   -1087.8119   -1711.9577   -1700.6828   -1573.8119    1476.5364    558.59194     24.97314     24.97314     24.97314            0            0            0 
   68000     59.63257   -355.35243    -522.9025    167.55006    1501.9973    15568.686   -5019.6451   -5902.0938    -4191.843   -4964.9984    961.03884    2974.2821    128.08436     24.96993     24.96993     24.96993            0            0            0 
   69000    60.487884   -356.53418   -519.55812    163.02394    1461.4231    15531.812    462.68422    501.75693   -932.33004    1818.6258   -869.52479   -185.09386    517.29457      24.9502      24.9502      24.9502            0            0            0 
   70000    61.364243   -362.30671   -524.05407    161.74736    1449.9792    15406.707    729.95032   -457.44536    61.767822    2585.5285    2243.8161     970.4295   -1079.7942     24.88303     24.88303     24.88303            0            0            0 
   71000    62.225053   -352.78838   -516.08411    163.29573    1463.8595    15592.631   -1490.9712   -1226.5065   -3836.2895    589.88237   -473.80032    3152.7463    3977.4853    24.982725    24.982725    24.982725            0            0            0 
   72000    63.108306   -359.99059   -528.32981    168.33923    1509.0718    15305.729    138.78551    59.938927    2366.5326    -2010.115    596.36125   -1082.6411   -2121.3757    24.828549    24.828549    24.828549            0            0            0 
   73000    63.974959    -349.0223   -523.26922    174.24692    1562.0311    15530.322     449.0778    891.51542    1213.7898   -758.07185   -311.20693     271.1655   -900.19112    24.949403    24.949403    24.949403            0            0            0 
   74000    64.842396   -348.46318   -511.53022    163.06703    1461.8093    15840.552   -3061.9924   -4014.2854    -923.0693   -4248.6224   -2837.7829    1064.2598   -528.39692    25.114437    25.114437    25.114437            0            0            0 
   75000    65.707966   -359.99589   -522.94479     162.9489    1460.7503    15435.027   -2255.2859    -1035.192   -1613.3362   -4117.3295   -1897.9607   -390.37364    1005.0225    24.898268    24.898268    24.898268            0            0            0 
   76000    66.576348   -360.02482   -521.71455    161.68973    1449.4626     15411.27   -1161.6856    1520.8551   -1152.8844   -3853.0275   -1794.9128     624.4026    820.45258    24.885487    24.885487    24.885487            0            0            0 
   77000    67.447358   -361.75101   -529.88165    168.13064    1507.2019     15237.98   -559.69356     -3381.18   -2032.7869    3734.8862    -2057.091    1083.7038    996.62858    24.791861    24.791861    24.791861            0            0            0 
   78000    68.308136   -347.57312   -517.66857    170.09544    1524.8153    15698.877   -1147.5105    3283.2896   -1270.9154   -5454.9057    -1077.586   -1217.4726     361.6585    25.039339    25.039339    25.039339            0            0            0 
   79000    69.167342   -350.81781    -517.8246    167.00679    1497.1272    15512.404    92.057118    1756.6853    -1410.095   -70.419007    1106.3282    294.19668   -1803.0799    24.939804    24.939804    24.939804            0            0            0 
   80000    70.034896   -345.06655   -507.51312    162.44657    1456.2473    15935.874    974.12875    2180.6815    2271.5923   -1529.8875    -137.6132   -717.12093    2158.0088    25.164712    25.164712    25.164712            0            0            0 
   81000    70.877537   -354.17899   -518.87327    164.69428    1476.3967    15412.462    840.15752    3165.9387    1723.9585   -2369.4247   -1249.7365     1176.128   -780.94048    24.886129    24.886129    24.886129            0            0            0 
   82000    71.742044   -364.40545    -526.0714    161.66595    1449.2494    15388.208   -461.95217   -1573.3753    579.76261   -392.24383    1374.2864    1160.5065    1269.0759    24.873068    24.873068    24.873068            0            0            0 
   83000    72.612228   -368.34123   -531.77789    163.43666    1465.1228     15080.57    1429.4886    3591.7696    2748.6131   -2051.9169    1165.3176    3120.2645    -199.5539    24.706198    24.706198    24.706198            0            0            0 
   84000    73.477937   -346.84089   -512.44709    165.60621    1484.5717    15731.479   -1273.4952    428.26167   -2427.6722    -1821.075   -2017.2671   -1885.9865    347.59444     25.05666     25.05666     25.05666            0            0            0 
   85000    74.350519   -350.00349   -510.83255    160.82907    1441.7472    15923.763   -1969.5786   -5212.4238   -320.46347   -375.84856    62.189963    1173.5759   -1284.8312    25.158335    25.158335    25.158335            0            0            0 
   86000    75.218443    -379.0565   -542.90794    163.85144    1468.8411    14798.567    2495.4472    5142.8622    213.56842    2129.9109   -1775.0713    218.88379   -1153.1794    24.551228    24.551228    24.551228            0            0            0 
   87000    76.085542   -357.49981   -527.51394    170.01413    1524.0864    15259.941    878.11517     461.0382   -149.90568     2323.213    1082.8247   -1793.7048    2939.8415    24.803765    24.803765    24.803765            0            0            0 
   88000    76.946605   -348.88229   -516.56117    167.67889    1503.1522    15602.831    781.43639    359.91839    3687.2899   -1702.8991   -4973.7151    534.72777    452.29658    24.988171    24.988171    24.988171            0            0            0 
   89000    77.793202   -344.33208   -512.62475    168.29267    1508.6544    15781.443   -2635.5026   -1619.8179   -1990.7559    -4295.934   -1524.3731    2900.4354    968.07973    25.083159    25.083159    25.083159            0            0            0 
   90000    78.651964   -352.21006   -518.65526     166.4452    1492.0928    15524.726    -192.1385     2591.814   -619.66766   -2548.5619   -4095.5908   -570.79497    801.77515    24.946406    24.946406    24.946406            0            0            0 
   91000    79.518955   -376.38443   -541.61392    165.22949    1481.1947    14929.052    2906.5459    2073.9589    4290.8165    2354.8624    -16.43781     2209.936    432.50701    24.623177    24.623177    24.623177            0            0            0 
   92000    80.376799   -346.93147    -521.9956    175.06413     1569.357    15485.389    2537.6974    3019.4037    664.62347    3929.0651   -121.28894   -870.40653    -964.0819    24.925318    24.925318    24.925318            0            0            0 
   93000    81.220763   -357.76853   -521.46577    163.69725    1467.4589    15465.209   -921.39034   -2337.3401   -568.38926    141.55836    195.40427   -1507.2471    864.09626    24.914486    24.914486    24.914486            0            0            0 
   94000    82.100969   -370.00362   -529.37671    159.37309    1428.6951    15287.344   -2999.5854   -1990.3219   -5328.7854    -1679.649   -214.18225   -1005.4601    1858.5665    24.818604    24.818604    24.818604            0            0            0 
   95000    82.964156   -353.25214   -515.91799    162.66586     1458.213    15641.765   -1942.5521   -4800.0624    1557.3645   -2584.9585    555.31779   -18.590718   -2074.2408    25.008938    25.008938    25.008938            0            0            0 
   96000    83.814307   -364.11984   -526.04742    161.92757    1451.5947    15328.502    910.79398   -990.53138    60.630402    3662.2829    181.93113   -2595.3802    322.70143    24.840857    24.840857    24.840857            0            0            0 
   97000    84.675072   -356.10123   -528.92424    172.82301    1549.2665    15300.334   -1376.0464    -1984.497    1569.4284   -3713.0707   -2329.7542    2181.3397   -374.91997    24.825631    24.825631    24.825631            0            0            0 
   98000    85.539782   -363.13645   -521.88517    158.74871    1423.0979    15377.632   -513.96973    372.71432   -718.72902   -1195.8945   -437.54232    1387.7671   -1076.9074    24.867368    24.867368    24.867368            0            0            0 
   99000    86.390252   -340.59571   -507.98905    167.39334    1500.5924    15872.639   -554.52579   -855.32177    243.31215   -1051.5678   -2207.9701    1057.2349   -19.374532    25.131383    25.131383    25.131383            0            0            0 
  100000    87.243592    -356.3261   -529.84573    173.51963    1555.5113    15128.729    2380.4746    2231.8071    1367.2464    3542.3703   -519.38776    -167.0925    1799.6986    24.732469    24.732469    24.732469            0            0            0 
Loop time of 87.2436 on 1 procs for 100000 steps with 864 atoms

Performance: 99.033 ns/day, 0.242 hours/ns, 1146.215 timesteps/s
100.0% CPU use with 1 MPI tasks x 1 OpenMP threads

MPI task timing breakdown:
Section |  min time  |  avg time  |  max time  |%varavg| %total
---------------------------------------------------------------
Pair    | 79.551     | 79.551     | 79.551     |   0.0 | 91.18
Neigh   | 2.8017     | 2.8017     | 2.8017     |   0.0 |  3.21
Comm    | 1.5487     | 1.5487     | 1.5487     |   0.0 |  1.78
Output  | 0.0052049  | 0.0052049  | 0.0052049  |   0.0 |  0.01
Modify  | 2.8134     | 2.8134     | 2.8134     |   0.0 |  3.22
Other   |            | 0.5236     |            |       |  0.60

Nlocal:    864 ave 864 max 864 min
Histogram: 1 0 0 0 0 0 0 0 0 0
Nghost:    2973 ave 2973 max 2973 min
Histogram: 1 0 0 0 0 0 0 0 0 0
Neighs:    52836 ave 52836 max 52836 min
Histogram: 1 0 0 0 0 0 0 0 0 0

Total # of neighbors = 52836
Ave neighs/atom = 61.1528
Neighbor list builds = 1720
Dangerous builds = 0

write_data	init.data
Total wall time: 0:01:27
